<?xml version="1.0" encoding="UTF-8"?>

<!-- generated on 04/19/20 23:23:48 by Eclipse SUMO dfrouter Version 1.5.0
<configuration xmlns:xsi="http://www.w3.org/2001/XMLSchema-instance" xsi:noNamespaceSchemaLocation="http://sumo.dlr.de/xsd/dfrouterConfiguration.xsd">

    <input>
        <net-file value="reduced_anchieta.net.xml"/>
        <detector-files value="flowroute\induction-loop-detectors-TF-5.add.xml"/>
        <measure-files value="flowroute\flow_TF-5_2020-02-27.csv"/>
    </input>

    <output>
        <routes-output value="flowroute\routes_output.rou.xml"/>
        <detector-output value="flowroute\detectors_output.add.xml"/>
        <emitters-output value="emiter_output.add.xml"/>
        <vtype value="true"/>
        <vtype-output value="VHTYPE.xml"/>
    </output>

    <processing>
        <keep-unfinished-routes value="true"/>
    </processing>

</configuration>
-->

<routes xmlns:xsi="http://www.w3.org/2001/XMLSchema-instance" xsi:noNamespaceSchemaLocation="http://sumo.dlr.de/xsd/routes_file.xsd">

    <route id="216650879_to_101005127.945" edges="216650879 101005127 101005127.945"/>
    <route id="216650879_to_:Salida-TF5Norte_w0" edges="216650879 100829420 216650898 775363913 775381929 28306817 215803174#0 215803157 216243708#1 220346965 154607611 :Salida-TF5Norte_w0"/>
    <route id="216650879_to_216268747" edges="216650879 100829420 216650898 775363913 775381929 28306817 215803174#0 215803157 159229344#0 159229344#0.2 216268747"/>
    <route id="216650879_to_:gneJ30_w1" edges="216650879 100829420 216650898 775363913 775381929 28306817 215803174#0 215803157 216243708#1 220346965 154607611 154607613#0 154607613#1 216268744 142470461 :gneJ30_w1"/>
    <route id="216650879_to_:Entrada-TF5Sur_w0" edges="216650879 100829420 216650898 775363913 775381929 28306817 215803174#0 215803157 216243708#1 220346965 154607611 154607613#0 154607613#1 :Entrada-TF5Sur_w0"/>
    <route id="216650879_to_:Entrada-TF5Norte_w1" edges="216650879 100829420 216650898 775363913 775381929 28306817 215803174#0 215803157 216243708#1 220346965 154607611 154607613#0 154607613#1 216268744 142470445 218891289 550301038 218745680 217691393#0 217691393#1 :Entrada-TF5Norte_w1"/>
    <route id="216650879_to_142470467" edges="216650879 100829420 216650898 775363913 775381929 28306817 215803174#0 215803157 216243708#1 220346965 154607611 154607613#0 154607613#1 216268744 142470445 218891289 550301038 142470433#1 142470460#0 142470467"/>
    <route id="216650879_to_215803108" edges="216650879 100829420 216650898 775363913 775381929 28306817 215803174#0 215803157 216243708#1 220346965 154607611 28306819#0 28306819#1 28306819#2 215803177 217912067 215803108"/>
    <route id="216650879_to_759746395" edges="216650879 100829420 216650898 775363913 775381929 28306817 215803174#0 215803157 216243708#1 220346965 154607611 154607613#0 154607613#1 216268744 142470445 218891289 550301038 218745680 91731873#1 449288818#0 449288818#1 100829406 217691379-AddedOnRampEdge 217691379 216657562 216657562-AddedOffRampEdge 449289872 759746395"/>
    <route id="216650879_to_159229390#1" edges="216650879 100829420 216650898 775363913 775381928 216268745 176343037 159229390#1"/>
    <route id="216650879_to_-62073582" edges="216650879 100829420 216650898 775363913 775381929 28306817 215803174#0 215803157 216243708#1 220346965 154607611 154607613#0 154607613#1 216268744 142470445 218891289 550301038 218745680 91731873#1 449288818#0 449288818#1 100829413 62073582 215077545 62073539 217159012#0 217159012#1 216657574 216941948 62073441 -62073486 -62073582"/>
    <route id="216650879_to_217553754" edges="216650879 100829420 216650898 775363913 775381929 28306817 215803174#0 215803157 216243708#1 220346965 154607611 154607613#0 154607613#1 216268744 142470445 218891289 550301038 218745680 91731873#1 449288818#0 449288818#1 100829406 217691379-AddedOnRampEdge 217691379 216657562 216657562-AddedOffRampEdge 217553754"/>
    <route id="216650879_to_28370559#8" edges="216650879 100829420 216650898 775363913 775381929 28306817 215803174#0 215803157 159229344#0 159229344#0.2 142470423#0 142470423#1 142470423#2 :1431457859_w0 -142470423#2 :cluster_2084331660_2084331663_4583119143_w0 28370559#7 28370559#8"/>
    <route id="216650879_to_:EntradaSalida-Geneto_w0" edges="216650879 100829420 216650898 775363913 775381929 28306817 215803174#0 215803157 216243708#1 220346965 154607611 154607613#0 154607613#1 216268744 142470445 218891289 550301038 142470433#1 142470433#2 142470433#3 142470433#4 :270900627_w0 -142470433#4 -142470433#3 -142470433#2 -142470433#1 :EntradaSalida-Geneto_w0"/>

    <route id="216243700_to_759746395" edges="216243700 216243700.351 217691379-AddedOnRampEdge 217691379 216657562 216657562-AddedOffRampEdge 449289872 759746395"/>
    <route id="216243700_to_217553754" edges="216243700 216243700.351 217691379-AddedOnRampEdge 217691379 216657562 216657562-AddedOffRampEdge 217553754"/>


</routes>
