<?xml version="1.0" encoding="UTF-8"?>

<!-- generated on 04/29/20 16:49:19 by Eclipse SUMO dfrouter Version 1.5.0
<configuration xmlns:xsi="http://www.w3.org/2001/XMLSchema-instance" xsi:noNamespaceSchemaLocation="http://sumo.dlr.de/xsd/dfrouterConfiguration.xsd">

    <input>
        <net-file value="anchieta.net.xml"/>
        <detector-files value="detectors_output.add.xml"/>
        <measure-files value="flow_TF-5_2020-02-27_8h_normal.csv"/>
    </input>

    <output>
        <routes-output value="routes_output.add.xml"/>
        <emitters-output value="emiter_output.add.xml"/>
    </output>

    <processing>
        <revalidate-routes value="true"/>
        <keep-unfinished-routes value="true"/>
        <disallowed-edges value="775381928,:Entrada-TF5Norte_w1,:Entrada-TF5Sur_w0,:gneJ30_w1,:Salida-TF5Norte_w0,142470467"/>
    </processing>

    <report>
        <verbose value="true"/>
    </report>

</configuration>
-->

<additional xmlns:xsi="http://www.w3.org/2001/XMLSchema-instance" xsi:noNamespaceSchemaLocation="http://sumo.dlr.de/xsd/additional_file.xsd">
    <routeDistribution id="campus_guajara_creciente_lento">
        <route refId="216650879_to_159229344#0.2" probability="0.04"/>
        <route refId="216650879_to_215803108" probability="0.67"/>
        <route refId="216650879_to_28490061#2" probability="0.16"/>
        <route refId="216650879_to_-217365458#0" probability="0.01"/>
        <route refId="216650879_to_759746395" probability="0.13"/>
        <route refId="216650879_to_142470433#4" probability="0.00"/>
        <route refId="216650879_to_-109573928#1.8" probability="0.01"/>
        <route refId="216650879_to_217553754" probability="0.05"/>
    </routeDistribution>
    <vehicle id="campus_guajara_creciente_lento.0" depart="3600.00" departLane="0" departPos="0.00" departSpeed="33.33" route="216650879_to_759746395"/>
    <vehicle id="campus_guajara_creciente_lento.1" depart="3600.03" departLane="0" departPos="0.00" departSpeed="33.33" route="216650879_to_28490061#2"/>
    <vehicle id="campus_guajara_creciente_lento.2" depart="3600.06" departLane="0" departPos="0.00" departSpeed="33.33" route="216650879_to_215803108"/>
    <vehicle id="campus_guajara_creciente_lento.3" depart="3600.09" departLane="0" departPos="0.00" departSpeed="33.33" route="216650879_to_215803108"/>
    <vehicle id="campus_guajara_creciente_lento.4" depart="3600.11" departLane="0" departPos="0.00" departSpeed="33.33" route="216650879_to_215803108"/>
    <vehicle id="campus_guajara_creciente_lento.5" depart="3600.14" departLane="0" departPos="0.00" departSpeed="33.33" route="216650879_to_215803108"/>
    <vehicle id="campus_guajara_creciente_lento.6" depart="3600.17" departLane="0" departPos="0.00" departSpeed="33.33" route="216650879_to_28490061#2"/>
    <vehicle id="campus_guajara_creciente_lento.7" depart="3600.20" departLane="0" departPos="0.00" departSpeed="33.33" route="216650879_to_215803108"/>
    <vehicle id="campus_guajara_creciente_lento.8" depart="3600.23" departLane="0" departPos="0.00" departSpeed="33.33" route="216650879_to_215803108"/>
    <vehicle id="campus_guajara_creciente_lento.9" depart="3600.26" departLane="0" departPos="0.00" departSpeed="33.33" route="216650879_to_28490061#2"/>
    <vehicle id="campus_guajara_creciente_lento.10" depart="3600.29" departLane="0" departPos="0.00" departSpeed="33.33" route="216650879_to_159229344#0.2"/>
    <vehicle id="campus_guajara_creciente_lento.11" depart="3600.32" departLane="0" departPos="0.00" departSpeed="33.33" route="216650879_to_28490061#2"/>
    <vehicle id="campus_guajara_creciente_lento.12" depart="3600.34" departLane="0" departPos="0.00" departSpeed="33.33" route="216650879_to_215803108"/>
    <vehicle id="campus_guajara_creciente_lento.13" depart="3600.37" departLane="0" departPos="0.00" departSpeed="33.33" route="216650879_to_215803108"/>
    <vehicle id="campus_guajara_creciente_lento.14" depart="3600.40" departLane="0" departPos="0.00" departSpeed="33.33" route="216650879_to_215803108"/>
    <vehicle id="campus_guajara_creciente_lento.15" depart="3600.43" departLane="0" departPos="0.00" departSpeed="33.33" route="216650879_to_215803108"/>
    <vehicle id="campus_guajara_creciente_lento.16" depart="3600.46" departLane="0" departPos="0.00" departSpeed="33.33" route="216650879_to_215803108"/>
    <vehicle id="campus_guajara_creciente_lento.17" depart="3600.49" departLane="0" departPos="0.00" departSpeed="33.33" route="216650879_to_759746395"/>
    <vehicle id="campus_guajara_creciente_lento.18" depart="3600.52" departLane="0" departPos="0.00" departSpeed="33.33" route="216650879_to_215803108"/>
    <vehicle id="campus_guajara_creciente_lento.19" depart="3600.55" departLane="0" departPos="0.00" departSpeed="33.33" route="216650879_to_28490061#2"/>
    <vehicle id="campus_guajara_creciente_lento.20" depart="3600.57" departLane="0" departPos="0.00" departSpeed="33.33" route="216650879_to_215803108"/>
    <vehicle id="campus_guajara_creciente_lento.21" depart="3600.60" departLane="0" departPos="0.00" departSpeed="33.33" route="216650879_to_215803108"/>
    <vehicle id="campus_guajara_creciente_lento.22" depart="3600.63" departLane="0" departPos="0.00" departSpeed="33.33" route="216650879_to_215803108"/>
    <vehicle id="campus_guajara_creciente_lento.23" depart="3600.66" departLane="0" departPos="0.00" departSpeed="33.33" route="216650879_to_215803108"/>
    <vehicle id="campus_guajara_creciente_lento.24" depart="3600.69" departLane="0" departPos="0.00" departSpeed="33.33" route="216650879_to_759746395"/>
    <vehicle id="campus_guajara_creciente_lento.25" depart="3600.72" departLane="0" departPos="0.00" departSpeed="33.33" route="216650879_to_759746395"/>
    <vehicle id="campus_guajara_creciente_lento.26" depart="3600.75" departLane="0" departPos="0.00" departSpeed="33.33" route="216650879_to_759746395"/>
    <vehicle id="campus_guajara_creciente_lento.27" depart="3600.78" departLane="0" departPos="0.00" departSpeed="33.33" route="216650879_to_215803108"/>
    <vehicle id="campus_guajara_creciente_lento.28" depart="3600.80" departLane="0" departPos="0.00" departSpeed="33.33" route="216650879_to_215803108"/>
    <vehicle id="campus_guajara_creciente_lento.29" depart="3600.83" departLane="0" departPos="0.00" departSpeed="33.33" route="216650879_to_215803108"/>
    <vehicle id="campus_guajara_creciente_lento.30" depart="3600.86" departLane="0" departPos="0.00" departSpeed="33.33" route="216650879_to_159229344#0.2"/>
    <vehicle id="campus_guajara_creciente_lento.31" depart="3600.89" departLane="0" departPos="0.00" departSpeed="33.33" route="216650879_to_215803108"/>
    <vehicle id="campus_guajara_creciente_lento.32" depart="3600.92" departLane="0" departPos="0.00" departSpeed="33.33" route="216650879_to_28490061#2"/>
    <vehicle id="campus_guajara_creciente_lento.33" depart="3600.95" departLane="0" departPos="0.00" departSpeed="33.33" route="216650879_to_215803108"/>
    <vehicle id="campus_guajara_creciente_lento.34" depart="3600.98" departLane="0" departPos="0.00" departSpeed="33.33" route="216650879_to_217553754"/>
    <vehicle id="campus_guajara_creciente_lento.35" depart="3601.00" departLane="0" departPos="0.00" departSpeed="33.33" route="216650879_to_159229344#0.2"/>
    <vehicle id="campus_guajara_creciente_lento.36" depart="3601.03" departLane="0" departPos="0.00" departSpeed="33.33" route="216650879_to_28490061#2"/>
    <vehicle id="campus_guajara_creciente_lento.37" depart="3601.06" departLane="0" departPos="0.00" departSpeed="33.33" route="216650879_to_215803108"/>
    <vehicle id="campus_guajara_creciente_lento.38" depart="3601.09" departLane="0" departPos="0.00" departSpeed="33.33" route="216650879_to_215803108"/>
    <vehicle id="campus_guajara_creciente_lento.39" depart="3601.12" departLane="0" departPos="0.00" departSpeed="33.33" route="216650879_to_215803108"/>
    <vehicle id="campus_guajara_creciente_lento.40" depart="3601.15" departLane="0" departPos="0.00" departSpeed="33.33" route="216650879_to_215803108"/>
    <vehicle id="campus_guajara_creciente_lento.41" depart="3601.18" departLane="0" departPos="0.00" departSpeed="33.33" route="216650879_to_217553754"/>
    <vehicle id="campus_guajara_creciente_lento.42" depart="3601.21" departLane="0" departPos="0.00" departSpeed="33.33" route="216650879_to_215803108"/>
    <vehicle id="campus_guajara_creciente_lento.43" depart="3601.23" departLane="0" departPos="0.00" departSpeed="33.33" route="216650879_to_215803108"/>
    <vehicle id="campus_guajara_creciente_lento.44" depart="3601.26" departLane="0" departPos="0.00" departSpeed="33.33" route="216650879_to_215803108"/>
    <vehicle id="campus_guajara_creciente_lento.45" depart="3601.29" departLane="0" departPos="0.00" departSpeed="33.33" route="216650879_to_215803108"/>
    <vehicle id="campus_guajara_creciente_lento.46" depart="3601.32" departLane="0" departPos="0.00" departSpeed="33.33" route="216650879_to_215803108"/>
    <vehicle id="campus_guajara_creciente_lento.47" depart="3601.35" departLane="0" departPos="0.00" departSpeed="33.33" route="216650879_to_28490061#2"/>
    <vehicle id="campus_guajara_creciente_lento.48" depart="3601.38" departLane="0" departPos="0.00" departSpeed="33.33" route="216650879_to_215803108"/>
    <vehicle id="campus_guajara_creciente_lento.49" depart="3601.41" departLane="0" departPos="0.00" departSpeed="33.33" route="216650879_to_28490061#2"/>
    <vehicle id="campus_guajara_creciente_lento.50" depart="3601.44" departLane="0" departPos="0.00" departSpeed="33.33" route="216650879_to_28490061#2"/>
    <vehicle id="campus_guajara_creciente_lento.51" depart="3601.46" departLane="0" departPos="0.00" departSpeed="33.33" route="216650879_to_215803108"/>
    <vehicle id="campus_guajara_creciente_lento.52" depart="3601.49" departLane="0" departPos="0.00" departSpeed="33.33" route="216650879_to_28490061#2"/>
    <vehicle id="campus_guajara_creciente_lento.53" depart="3601.52" departLane="0" departPos="0.00" departSpeed="33.33" route="216650879_to_759746395"/>
    <vehicle id="campus_guajara_creciente_lento.54" depart="3601.55" departLane="0" departPos="0.00" departSpeed="33.33" route="216650879_to_217553754"/>
    <vehicle id="campus_guajara_creciente_lento.55" depart="3601.58" departLane="0" departPos="0.00" departSpeed="33.33" route="216650879_to_215803108"/>
    <vehicle id="campus_guajara_creciente_lento.56" depart="3601.61" departLane="0" departPos="0.00" departSpeed="33.33" route="216650879_to_215803108"/>
    <vehicle id="campus_guajara_creciente_lento.57" depart="3601.64" departLane="0" departPos="0.00" departSpeed="33.33" route="216650879_to_215803108"/>
    <vehicle id="campus_guajara_creciente_lento.58" depart="3601.67" departLane="0" departPos="0.00" departSpeed="33.33" route="216650879_to_215803108"/>
    <vehicle id="campus_guajara_creciente_lento.59" depart="3601.69" departLane="0" departPos="0.00" departSpeed="33.33" route="216650879_to_217553754"/>
    <vehicle id="campus_guajara_creciente_lento.60" depart="3601.72" departLane="0" departPos="0.00" departSpeed="33.33" route="216650879_to_215803108"/>
    <vehicle id="campus_guajara_creciente_lento.61" depart="3601.75" departLane="0" departPos="0.00" departSpeed="33.33" route="216650879_to_215803108"/>
    <vehicle id="campus_guajara_creciente_lento.62" depart="3601.78" departLane="0" departPos="0.00" departSpeed="33.33" route="216650879_to_215803108"/>
    <vehicle id="campus_guajara_creciente_lento.63" depart="3601.81" departLane="0" departPos="0.00" departSpeed="33.33" route="216650879_to_159229344#0.2"/>
    <vehicle id="campus_guajara_creciente_lento.64" depart="3601.84" departLane="0" departPos="0.00" departSpeed="33.33" route="216650879_to_215803108"/>
    <vehicle id="campus_guajara_creciente_lento.65" depart="3601.87" departLane="0" departPos="0.00" departSpeed="33.33" route="216650879_to_215803108"/>
    <vehicle id="campus_guajara_creciente_lento.66" depart="3601.89" departLane="0" departPos="0.00" departSpeed="33.33" route="216650879_to_759746395"/>
    <vehicle id="campus_guajara_creciente_lento.67" depart="3601.92" departLane="0" departPos="0.00" departSpeed="33.33" route="216650879_to_215803108"/>
    <vehicle id="campus_guajara_creciente_lento.68" depart="3601.95" departLane="0" departPos="0.00" departSpeed="33.33" route="216650879_to_215803108"/>
    <vehicle id="campus_guajara_creciente_lento.69" depart="3601.98" departLane="0" departPos="0.00" departSpeed="33.33" route="216650879_to_217553754"/>
    <vehicle id="campus_guajara_creciente_lento.70" depart="3602.01" departLane="0" departPos="0.00" departSpeed="33.33" route="216650879_to_215803108"/>
    <vehicle id="campus_guajara_creciente_lento.71" depart="3602.04" departLane="0" departPos="0.00" departSpeed="33.33" route="216650879_to_215803108"/>
    <vehicle id="campus_guajara_creciente_lento.72" depart="3602.07" departLane="0" departPos="0.00" departSpeed="33.33" route="216650879_to_215803108"/>
    <vehicle id="campus_guajara_creciente_lento.73" depart="3602.10" departLane="0" departPos="0.00" departSpeed="33.33" route="216650879_to_215803108"/>
    <vehicle id="campus_guajara_creciente_lento.74" depart="3602.12" departLane="0" departPos="0.00" departSpeed="33.33" route="216650879_to_215803108"/>
    <vehicle id="campus_guajara_creciente_lento.75" depart="3602.15" departLane="0" departPos="0.00" departSpeed="33.33" route="216650879_to_215803108"/>
    <vehicle id="campus_guajara_creciente_lento.76" depart="3602.18" departLane="0" departPos="0.00" departSpeed="33.33" route="216650879_to_215803108"/>
    <vehicle id="campus_guajara_creciente_lento.77" depart="3602.21" departLane="0" departPos="0.00" departSpeed="33.33" route="216650879_to_215803108"/>
    <vehicle id="campus_guajara_creciente_lento.78" depart="3602.24" departLane="0" departPos="0.00" departSpeed="33.33" route="216650879_to_28490061#2"/>
    <vehicle id="campus_guajara_creciente_lento.79" depart="3602.27" departLane="0" departPos="0.00" departSpeed="33.33" route="216650879_to_215803108"/>
    <vehicle id="campus_guajara_creciente_lento.80" depart="3602.30" departLane="0" departPos="0.00" departSpeed="33.33" route="216650879_to_215803108"/>
    <vehicle id="campus_guajara_creciente_lento.81" depart="3602.33" departLane="0" departPos="0.00" departSpeed="33.33" route="216650879_to_215803108"/>
    <vehicle id="campus_guajara_creciente_lento.82" depart="3602.35" departLane="0" departPos="0.00" departSpeed="33.33" route="216650879_to_28490061#2"/>
    <vehicle id="campus_guajara_creciente_lento.83" depart="3602.38" departLane="0" departPos="0.00" departSpeed="33.33" route="216650879_to_215803108"/>
    <vehicle id="campus_guajara_creciente_lento.84" depart="3602.41" departLane="0" departPos="0.00" departSpeed="33.33" route="216650879_to_215803108"/>
    <vehicle id="campus_guajara_creciente_lento.85" depart="3602.44" departLane="0" departPos="0.00" departSpeed="33.33" route="216650879_to_215803108"/>
    <vehicle id="campus_guajara_creciente_lento.86" depart="3602.47" departLane="0" departPos="0.00" departSpeed="33.33" route="216650879_to_215803108"/>
    <vehicle id="campus_guajara_creciente_lento.87" depart="3602.50" departLane="0" departPos="0.00" departSpeed="33.33" route="216650879_to_759746395"/>
    <vehicle id="campus_guajara_creciente_lento.88" depart="3602.53" departLane="0" departPos="0.00" departSpeed="33.33" route="216650879_to_215803108"/>
    <vehicle id="campus_guajara_creciente_lento.89" depart="3602.56" departLane="0" departPos="0.00" departSpeed="33.33" route="216650879_to_215803108"/>
    <vehicle id="campus_guajara_creciente_lento.90" depart="3602.58" departLane="0" departPos="0.00" departSpeed="33.33" route="216650879_to_215803108"/>
    <vehicle id="campus_guajara_creciente_lento.91" depart="3602.61" departLane="0" departPos="0.00" departSpeed="33.33" route="216650879_to_217553754"/>
    <vehicle id="campus_guajara_creciente_lento.92" depart="3602.64" departLane="0" departPos="0.00" departSpeed="33.33" route="216650879_to_159229344#0.2"/>
    <vehicle id="campus_guajara_creciente_lento.93" depart="3602.67" departLane="0" departPos="0.00" departSpeed="33.33" route="216650879_to_215803108"/>
    <vehicle id="campus_guajara_creciente_lento.94" depart="3602.70" departLane="0" departPos="0.00" departSpeed="33.33" route="216650879_to_215803108"/>
    <vehicle id="campus_guajara_creciente_lento.95" depart="3602.73" departLane="0" departPos="0.00" departSpeed="33.33" route="216650879_to_759746395"/>
    <vehicle id="campus_guajara_creciente_lento.96" depart="3602.76" departLane="0" departPos="0.00" departSpeed="33.33" route="216650879_to_215803108"/>
    <vehicle id="campus_guajara_creciente_lento.97" depart="3602.78" departLane="0" departPos="0.00" departSpeed="33.33" route="216650879_to_759746395"/>
    <vehicle id="campus_guajara_creciente_lento.98" depart="3602.81" departLane="0" departPos="0.00" departSpeed="33.33" route="216650879_to_215803108"/>
    <vehicle id="campus_guajara_creciente_lento.99" depart="3602.84" departLane="0" departPos="0.00" departSpeed="33.33" route="216650879_to_215803108"/>
    <vehicle id="campus_guajara_creciente_lento.100" depart="3602.87" departLane="0" departPos="0.00" departSpeed="33.33" route="216650879_to_28490061#2"/>
    <vehicle id="campus_guajara_creciente_lento.101" depart="3602.90" departLane="0" departPos="0.00" departSpeed="33.33" route="216650879_to_215803108"/>
    <vehicle id="campus_guajara_creciente_lento.102" depart="3602.93" departLane="0" departPos="0.00" departSpeed="33.33" route="216650879_to_759746395"/>
    <vehicle id="campus_guajara_creciente_lento.103" depart="3602.96" departLane="0" departPos="0.00" departSpeed="33.33" route="216650879_to_215803108"/>
    <vehicle id="campus_guajara_creciente_lento.104" depart="3602.99" departLane="0" departPos="0.00" departSpeed="33.33" route="216650879_to_217553754"/>
    <vehicle id="campus_guajara_creciente_lento.105" depart="3603.01" departLane="0" departPos="0.00" departSpeed="33.33" route="216650879_to_215803108"/>
    <vehicle id="campus_guajara_creciente_lento.106" depart="3603.04" departLane="0" departPos="0.00" departSpeed="33.33" route="216650879_to_215803108"/>
    <vehicle id="campus_guajara_creciente_lento.107" depart="3603.07" departLane="0" departPos="0.00" departSpeed="33.33" route="216650879_to_215803108"/>
    <vehicle id="campus_guajara_creciente_lento.108" depart="3603.10" departLane="0" departPos="0.00" departSpeed="33.33" route="216650879_to_28490061#2"/>
    <vehicle id="campus_guajara_creciente_lento.109" depart="3603.13" departLane="0" departPos="0.00" departSpeed="33.33" route="216650879_to_215803108"/>
    <vehicle id="campus_guajara_creciente_lento.110" depart="3603.16" departLane="0" departPos="0.00" departSpeed="33.33" route="216650879_to_215803108"/>
    <vehicle id="campus_guajara_creciente_lento.111" depart="3603.19" departLane="0" departPos="0.00" departSpeed="33.33" route="216650879_to_215803108"/>
    <vehicle id="campus_guajara_creciente_lento.112" depart="3603.22" departLane="0" departPos="0.00" departSpeed="33.33" route="216650879_to_28490061#2"/>
    <vehicle id="campus_guajara_creciente_lento.113" depart="3603.24" departLane="0" departPos="0.00" departSpeed="33.33" route="216650879_to_215803108"/>
    <vehicle id="campus_guajara_creciente_lento.114" depart="3603.27" departLane="0" departPos="0.00" departSpeed="33.33" route="216650879_to_28490061#2"/>
    <vehicle id="campus_guajara_creciente_lento.115" depart="3603.30" departLane="0" departPos="0.00" departSpeed="33.33" route="216650879_to_215803108"/>
    <vehicle id="campus_guajara_creciente_lento.116" depart="3603.33" departLane="0" departPos="0.00" departSpeed="33.33" route="216650879_to_28490061#2"/>
    <vehicle id="campus_guajara_creciente_lento.117" depart="3603.36" departLane="0" departPos="0.00" departSpeed="33.33" route="216650879_to_215803108"/>
    <vehicle id="campus_guajara_creciente_lento.118" depart="3603.39" departLane="0" departPos="0.00" departSpeed="33.33" route="216650879_to_759746395"/>
    <vehicle id="campus_guajara_creciente_lento.119" depart="3603.42" departLane="0" departPos="0.00" departSpeed="33.33" route="216650879_to_215803108"/>
    <vehicle id="campus_guajara_creciente_lento.120" depart="3603.44" departLane="0" departPos="0.00" departSpeed="33.33" route="216650879_to_215803108"/>
    <vehicle id="campus_guajara_creciente_lento.121" depart="3603.47" departLane="0" departPos="0.00" departSpeed="33.33" route="216650879_to_215803108"/>
    <vehicle id="campus_guajara_creciente_lento.122" depart="3603.50" departLane="0" departPos="0.00" departSpeed="33.33" route="216650879_to_215803108"/>
    <vehicle id="campus_guajara_creciente_lento.123" depart="3603.53" departLane="0" departPos="0.00" departSpeed="33.33" route="216650879_to_28490061#2"/>
    <vehicle id="campus_guajara_creciente_lento.124" depart="3603.56" departLane="0" departPos="0.00" departSpeed="33.33" route="216650879_to_217553754"/>
    <vehicle id="campus_guajara_creciente_lento.125" depart="3603.59" departLane="0" departPos="0.00" departSpeed="33.33" route="216650879_to_759746395"/>
    <vehicle id="campus_guajara_creciente_lento.126" depart="3603.62" departLane="0" departPos="0.00" departSpeed="33.33" route="216650879_to_215803108"/>
    <vehicle id="campus_guajara_creciente_lento.127" depart="3603.65" departLane="0" departPos="0.00" departSpeed="33.33" route="216650879_to_759746395"/>
    <vehicle id="campus_guajara_creciente_lento.128" depart="3603.67" departLane="0" departPos="0.00" departSpeed="33.33" route="216650879_to_215803108"/>
    <vehicle id="campus_guajara_creciente_lento.129" depart="3603.70" departLane="0" departPos="0.00" departSpeed="33.33" route="216650879_to_215803108"/>
    <vehicle id="campus_guajara_creciente_lento.130" depart="3603.73" departLane="0" departPos="0.00" departSpeed="33.33" route="216650879_to_215803108"/>
    <vehicle id="campus_guajara_creciente_lento.131" depart="3603.76" departLane="0" departPos="0.00" departSpeed="33.33" route="216650879_to_215803108"/>
    <vehicle id="campus_guajara_creciente_lento.132" depart="3603.79" departLane="0" departPos="0.00" departSpeed="33.33" route="216650879_to_215803108"/>
    <vehicle id="campus_guajara_creciente_lento.133" depart="3603.82" departLane="0" departPos="0.00" departSpeed="33.33" route="216650879_to_215803108"/>
    <vehicle id="campus_guajara_creciente_lento.134" depart="3603.85" departLane="0" departPos="0.00" departSpeed="33.33" route="216650879_to_28490061#2"/>
    <vehicle id="campus_guajara_creciente_lento.135" depart="3603.88" departLane="0" departPos="0.00" departSpeed="33.33" route="216650879_to_215803108"/>
    <vehicle id="campus_guajara_creciente_lento.136" depart="3603.90" departLane="0" departPos="0.00" departSpeed="33.33" route="216650879_to_215803108"/>
    <vehicle id="campus_guajara_creciente_lento.137" depart="3603.93" departLane="0" departPos="0.00" departSpeed="33.33" route="216650879_to_215803108"/>
    <vehicle id="campus_guajara_creciente_lento.138" depart="3603.96" departLane="0" departPos="0.00" departSpeed="33.33" route="216650879_to_759746395"/>
    <vehicle id="campus_guajara_creciente_lento.139" depart="3603.99" departLane="0" departPos="0.00" departSpeed="33.33" route="216650879_to_215803108"/>
    <vehicle id="campus_guajara_creciente_lento.140" depart="3604.02" departLane="0" departPos="0.00" departSpeed="33.33" route="216650879_to_759746395"/>
    <vehicle id="campus_guajara_creciente_lento.141" depart="3604.05" departLane="0" departPos="0.00" departSpeed="33.33" route="216650879_to_142470433#4"/>
    <vehicle id="campus_guajara_creciente_lento.142" depart="3604.08" departLane="0" departPos="0.00" departSpeed="33.33" route="216650879_to_215803108"/>
    <vehicle id="campus_guajara_creciente_lento.143" depart="3604.11" departLane="0" departPos="0.00" departSpeed="33.33" route="216650879_to_159229344#0.2"/>
    <vehicle id="campus_guajara_creciente_lento.144" depart="3604.13" departLane="0" departPos="0.00" departSpeed="33.33" route="216650879_to_217553754"/>
    <vehicle id="campus_guajara_creciente_lento.145" depart="3604.16" departLane="0" departPos="0.00" departSpeed="33.33" route="216650879_to_759746395"/>
    <vehicle id="campus_guajara_creciente_lento.146" depart="3604.19" departLane="0" departPos="0.00" departSpeed="33.33" route="216650879_to_215803108"/>
    <vehicle id="campus_guajara_creciente_lento.147" depart="3604.22" departLane="0" departPos="0.00" departSpeed="33.33" route="216650879_to_759746395"/>
    <vehicle id="campus_guajara_creciente_lento.148" depart="3604.25" departLane="0" departPos="0.00" departSpeed="33.33" route="216650879_to_215803108"/>
    <vehicle id="campus_guajara_creciente_lento.149" depart="3604.28" departLane="0" departPos="0.00" departSpeed="33.33" route="216650879_to_215803108"/>
    <vehicle id="campus_guajara_creciente_lento.150" depart="3604.31" departLane="0" departPos="0.00" departSpeed="33.33" route="216650879_to_28490061#2"/>
    <vehicle id="campus_guajara_creciente_lento.151" depart="3604.33" departLane="0" departPos="0.00" departSpeed="33.33" route="216650879_to_215803108"/>
    <vehicle id="campus_guajara_creciente_lento.152" depart="3604.36" departLane="0" departPos="0.00" departSpeed="33.33" route="216650879_to_215803108"/>
    <vehicle id="campus_guajara_creciente_lento.153" depart="3604.39" departLane="0" departPos="0.00" departSpeed="33.33" route="216650879_to_159229344#0.2"/>
    <vehicle id="campus_guajara_creciente_lento.154" depart="3604.42" departLane="0" departPos="0.00" departSpeed="33.33" route="216650879_to_215803108"/>
    <vehicle id="campus_guajara_creciente_lento.155" depart="3604.45" departLane="0" departPos="0.00" departSpeed="33.33" route="216650879_to_759746395"/>
    <vehicle id="campus_guajara_creciente_lento.156" depart="3604.48" departLane="0" departPos="0.00" departSpeed="33.33" route="216650879_to_159229344#0.2"/>
    <vehicle id="campus_guajara_creciente_lento.157" depart="3604.51" departLane="0" departPos="0.00" departSpeed="33.33" route="216650879_to_215803108"/>
    <vehicle id="campus_guajara_creciente_lento.158" depart="3604.54" departLane="0" departPos="0.00" departSpeed="33.33" route="216650879_to_759746395"/>
    <vehicle id="campus_guajara_creciente_lento.159" depart="3604.56" departLane="0" departPos="0.00" departSpeed="33.33" route="216650879_to_215803108"/>
    <vehicle id="campus_guajara_creciente_lento.160" depart="3604.59" departLane="0" departPos="0.00" departSpeed="33.33" route="216650879_to_215803108"/>
    <vehicle id="campus_guajara_creciente_lento.161" depart="3604.62" departLane="0" departPos="0.00" departSpeed="33.33" route="216650879_to_759746395"/>
    <vehicle id="campus_guajara_creciente_lento.162" depart="3604.65" departLane="0" departPos="0.00" departSpeed="33.33" route="216650879_to_-217365458#0"/>
    <vehicle id="campus_guajara_creciente_lento.163" depart="3604.68" departLane="0" departPos="0.00" departSpeed="33.33" route="216650879_to_215803108"/>
    <vehicle id="campus_guajara_creciente_lento.164" depart="3604.71" departLane="0" departPos="0.00" departSpeed="33.33" route="216650879_to_217553754"/>
    <vehicle id="campus_guajara_creciente_lento.165" depart="3604.74" departLane="0" departPos="0.00" departSpeed="33.33" route="216650879_to_215803108"/>
    <vehicle id="campus_guajara_creciente_lento.166" depart="3604.77" departLane="0" departPos="0.00" departSpeed="33.33" route="216650879_to_759746395"/>
    <vehicle id="campus_guajara_creciente_lento.167" depart="3604.79" departLane="0" departPos="0.00" departSpeed="33.33" route="216650879_to_28490061#2"/>
    <vehicle id="campus_guajara_creciente_lento.168" depart="3604.82" departLane="0" departPos="0.00" departSpeed="33.33" route="216650879_to_215803108"/>
    <vehicle id="campus_guajara_creciente_lento.169" depart="3604.85" departLane="0" departPos="0.00" departSpeed="33.33" route="216650879_to_759746395"/>
    <vehicle id="campus_guajara_creciente_lento.170" depart="3604.88" departLane="0" departPos="0.00" departSpeed="33.33" route="216650879_to_215803108"/>
    <vehicle id="campus_guajara_creciente_lento.171" depart="3604.91" departLane="0" departPos="0.00" departSpeed="33.33" route="216650879_to_215803108"/>
    <vehicle id="campus_guajara_creciente_lento.172" depart="3604.94" departLane="0" departPos="0.00" departSpeed="33.33" route="216650879_to_215803108"/>
    <vehicle id="campus_guajara_creciente_lento.173" depart="3604.97" departLane="0" departPos="0.00" departSpeed="33.33" route="216650879_to_215803108"/>
    <vehicle id="campus_guajara_creciente_lento.174" depart="3605.00" departLane="0" departPos="0.00" departSpeed="33.33" route="216650879_to_215803108"/>
    <vehicle id="campus_guajara_creciente_lento.175" depart="3605.02" departLane="0" departPos="0.00" departSpeed="33.33" route="216650879_to_28490061#2"/>
    <vehicle id="campus_guajara_creciente_lento.176" depart="3605.05" departLane="0" departPos="0.00" departSpeed="33.33" route="216650879_to_215803108"/>
    <vehicle id="campus_guajara_creciente_lento.177" depart="3605.08" departLane="0" departPos="0.00" departSpeed="33.33" route="216650879_to_215803108"/>
    <vehicle id="campus_guajara_creciente_lento.178" depart="3605.11" departLane="0" departPos="0.00" departSpeed="33.33" route="216650879_to_28490061#2"/>
    <vehicle id="campus_guajara_creciente_lento.179" depart="3605.14" departLane="0" departPos="0.00" departSpeed="33.33" route="216650879_to_215803108"/>
    <vehicle id="campus_guajara_creciente_lento.180" depart="3605.17" departLane="0" departPos="0.00" departSpeed="33.33" route="216650879_to_215803108"/>
    <vehicle id="campus_guajara_creciente_lento.181" depart="3605.20" departLane="0" departPos="0.00" departSpeed="33.33" route="216650879_to_215803108"/>