<?xml version="1.0" encoding="UTF-8"?>

<!-- generated on 04/19/20 23:23:48 by Eclipse SUMO dfrouter Version 1.5.0
<configuration xmlns:xsi="http://www.w3.org/2001/XMLSchema-instance" xsi:noNamespaceSchemaLocation="http://sumo.dlr.de/xsd/dfrouterConfiguration.xsd">

    <input>
        <net-file value="reduced_anchieta.net.xml"/>
        <detector-files value="flowroute\induction-loop-detectors-TF-5.add.xml"/>
        <measure-files value="flowroute\flow_TF-5_2020-02-27.csv"/>
    </input>

    <output>
        <routes-output value="flowroute\routes_output.rou.xml"/>
        <detector-output value="flowroute\detectors_output.add.xml"/>
        <emitters-output value="emiter_output.add.xml"/>
        <vtype value="true"/>
        <vtype-output value="VHTYPE.xml"/>
    </output>

    <processing>
        <keep-unfinished-routes value="true"/>
    </processing>

</configuration>
-->

<additional xmlns:xsi="http://www.w3.org/2001/XMLSchema-instance" xsi:noNamespaceSchemaLocation="http://sumo.dlr.de/xsd/additional_file.xsd">
    <routeDistribution id="guajara_creciente_0">
        <route refId="216650879_to_101005127.945" probability="0.52"/>
        <route refId="216650879_to_:Salida-TF5Norte_w0" probability="1.00"/>
        <route refId="216650879_to_216268747" probability="1.00"/>
        <route refId="216650879_to_:gneJ30_w1" probability="1.00"/>
        <route refId="216650879_to_:Entrada-TF5Sur_w0" probability="1.00"/>
        <route refId="216650879_to_:Entrada-TF5Norte_w1" probability="1.00"/>
        <route refId="216650879_to_142470467" probability="1.00"/>
        <route refId="216650879_to_215803108" probability="1.00"/>
        <route refId="216650879_to_759746395" probability="1.00"/>
        <route refId="216650879_to_159229390#1" probability="1.00"/>
        <route refId="216650879_to_-62073582" probability="1.00"/>
        <route refId="216650879_to_217553754" probability="0.48"/>
        <route refId="216650879_to_28370559#8" probability="1.00"/>
        <route refId="216650879_to_:EntradaSalida-Geneto_w0" probability="1.00"/>
    </routeDistribution>
    <vehicle id="guajara_creciente_0.0" type="PKW" depart="3600.00" departLane="0" departPos="0.00" departSpeed="33.33" route="216650879_to_28370559#8"/>
    <vehicle id="guajara_creciente_0.1" type="PKW" depart="3600.03" departLane="0" departPos="0.00" departSpeed="33.33" route="216650879_to_159229390#1"/>
    <vehicle id="guajara_creciente_0.2" type="PKW" depart="3600.05" departLane="0" departPos="0.00" departSpeed="33.33" route="216650879_to_:Salida-TF5Norte_w0"/>
    <vehicle id="guajara_creciente_0.3" type="PKW" depart="3600.08" departLane="0" departPos="0.00" departSpeed="33.33" route="216650879_to_142470467"/>
    <vehicle id="guajara_creciente_0.4" type="PKW" depart="3600.11" departLane="0" departPos="0.00" departSpeed="33.33" route="216650879_to_759746395"/>
    <vehicle id="guajara_creciente_0.5" type="PKW" depart="3600.14" departLane="0" departPos="0.00" departSpeed="33.33" route="216650879_to_:Salida-TF5Norte_w0"/>
    <vehicle id="guajara_creciente_0.6" type="PKW" depart="3600.16" departLane="0" departPos="0.00" departSpeed="33.33" route="216650879_to_-62073582"/>
    <vehicle id="guajara_creciente_0.7" type="PKW" depart="3600.19" departLane="0" departPos="0.00" departSpeed="33.33" route="216650879_to_:gneJ30_w1"/>
    <vehicle id="guajara_creciente_0.8" type="PKW" depart="3600.22" departLane="0" departPos="0.00" departSpeed="33.33" route="216650879_to_215803108"/>
    <vehicle id="guajara_creciente_0.9" type="PKW" depart="3600.25" departLane="0" departPos="0.00" departSpeed="33.33" route="216650879_to_-62073582"/>
    <vehicle id="guajara_creciente_0.10" type="PKW" depart="3600.27" departLane="0" departPos="0.00" departSpeed="33.33" route="216650879_to_101005127.945"/>
    <vehicle id="guajara_creciente_0.11" type="PKW" depart="3600.30" departLane="0" departPos="0.00" departSpeed="33.33" route="216650879_to_159229390#1"/>
    <vehicle id="guajara_creciente_0.12" type="PKW" depart="3600.33" departLane="0" departPos="0.00" departSpeed="33.33" route="216650879_to_142470467"/>
    <vehicle id="guajara_creciente_0.13" type="PKW" depart="3600.36" departLane="0" departPos="0.00" departSpeed="33.33" route="216650879_to_142470467"/>
    <vehicle id="guajara_creciente_0.14" type="PKW" depart="3600.38" departLane="0" departPos="0.00" departSpeed="33.33" route="216650879_to_215803108"/>
    <vehicle id="guajara_creciente_0.15" type="PKW" depart="3600.41" departLane="0" departPos="0.00" departSpeed="33.33" route="216650879_to_:gneJ30_w1"/>
    <vehicle id="guajara_creciente_0.16" type="PKW" depart="3600.44" departLane="0" departPos="0.00" departSpeed="33.33" route="216650879_to_:Salida-TF5Norte_w0"/>
    <vehicle id="guajara_creciente_0.17" type="PKW" depart="3600.47" departLane="0" departPos="0.00" departSpeed="33.33" route="216650879_to_28370559#8"/>
    <vehicle id="guajara_creciente_0.18" type="PKW" depart="3600.49" departLane="0" departPos="0.00" departSpeed="33.33" route="216650879_to_:Entrada-TF5Sur_w0"/>
    <vehicle id="guajara_creciente_0.19" type="PKW" depart="3600.52" departLane="0" departPos="0.00" departSpeed="33.33" route="216650879_to_159229390#1"/>
    <vehicle id="guajara_creciente_0.20" type="PKW" depart="3600.55" departLane="0" departPos="0.00" departSpeed="33.33" route="216650879_to_:Salida-TF5Norte_w0"/>
    <vehicle id="guajara_creciente_0.21" type="PKW" depart="3600.57" departLane="0" departPos="0.00" departSpeed="33.33" route="216650879_to_215803108"/>
    <vehicle id="guajara_creciente_0.22" type="PKW" depart="3600.60" departLane="0" departPos="0.00" departSpeed="33.33" route="216650879_to_:Entrada-TF5Sur_w0"/>
    <vehicle id="guajara_creciente_0.23" type="PKW" depart="3600.63" departLane="0" departPos="0.00" departSpeed="33.33" route="216650879_to_759746395"/>
    <vehicle id="guajara_creciente_0.24" type="PKW" depart="3600.66" departLane="0" departPos="0.00" departSpeed="33.33" route="216650879_to_:EntradaSalida-Geneto_w0"/>
    <vehicle id="guajara_creciente_0.25" type="LKW" depart="3600.68" departLane="0" departPos="0.00" departSpeed="33.33" route="216650879_to_217553754"/>
    <vehicle id="guajara_creciente_0.26" type="PKW" depart="3600.71" departLane="0" departPos="0.00" departSpeed="33.33" route="216650879_to_28370559#8"/>
    <vehicle id="guajara_creciente_0.27" type="PKW" depart="3600.74" departLane="0" departPos="0.00" departSpeed="33.33" route="216650879_to_:Entrada-TF5Norte_w1"/>
    <vehicle id="guajara_creciente_0.28" type="PKW" depart="3600.77" departLane="0" departPos="0.00" departSpeed="33.33" route="216650879_to_215803108"/>
    <vehicle id="guajara_creciente_0.29" type="PKW" depart="3600.79" departLane="0" departPos="0.00" departSpeed="33.33" route="216650879_to_:gneJ30_w1"/>
    <vehicle id="guajara_creciente_0.30" type="PKW" depart="3600.82" departLane="0" departPos="0.00" departSpeed="33.33" route="216650879_to_101005127.945"/>
    <vehicle id="guajara_creciente_0.31" type="PKW" depart="3600.85" departLane="0" departPos="0.00" departSpeed="33.33" route="216650879_to_:Entrada-TF5Sur_w0"/>
    <vehicle id="guajara_creciente_0.32" type="PKW" depart="3600.88" departLane="0" departPos="0.00" departSpeed="33.33" route="216650879_to_-62073582"/>
    <vehicle id="guajara_creciente_0.33" type="PKW" depart="3600.90" departLane="0" departPos="0.00" departSpeed="33.33" route="216650879_to_216268747"/>
    <vehicle id="guajara_creciente_0.34" type="PKW" depart="3600.93" departLane="0" departPos="0.00" departSpeed="33.33" route="216650879_to_:EntradaSalida-Geneto_w0"/>
    <vehicle id="guajara_creciente_0.35" type="PKW" depart="3600.96" departLane="0" departPos="0.00" departSpeed="33.33" route="216650879_to_101005127.945"/>
    <vehicle id="guajara_creciente_0.36" type="PKW" depart="3600.98" departLane="0" departPos="0.00" departSpeed="33.33" route="216650879_to_159229390#1"/>
    <vehicle id="guajara_creciente_0.37" type="PKW" depart="3601.01" departLane="0" departPos="0.00" departSpeed="33.33" route="216650879_to_:Entrada-TF5Sur_w0"/>
    <vehicle id="guajara_creciente_0.38" type="PKW" depart="3601.04" departLane="0" departPos="0.00" departSpeed="33.33" route="216650879_to_216268747"/>
    <vehicle id="guajara_creciente_0.39" type="PKW" depart="3601.07" departLane="0" departPos="0.00" departSpeed="33.33" route="216650879_to_216268747"/>
    <vehicle id="guajara_creciente_0.40" type="PKW" depart="3601.09" departLane="0" departPos="0.00" departSpeed="33.33" route="216650879_to_:Entrada-TF5Norte_w1"/>
    <vehicle id="guajara_creciente_0.41" type="PKW" depart="3601.12" departLane="0" departPos="0.00" departSpeed="33.33" route="216650879_to_:EntradaSalida-Geneto_w0"/>
    <vehicle id="guajara_creciente_0.42" type="PKW" depart="3601.15" departLane="0" departPos="0.00" departSpeed="33.33" route="216650879_to_:gneJ30_w1"/>
    <vehicle id="guajara_creciente_0.43" type="PKW" depart="3601.18" departLane="0" departPos="0.00" departSpeed="33.33" route="216650879_to_:gneJ30_w1"/>
    <vehicle id="guajara_creciente_0.44" type="PKW" depart="3601.20" departLane="0" departPos="0.00" departSpeed="33.33" route="216650879_to_216268747"/>
    <vehicle id="guajara_creciente_0.45" type="PKW" depart="3601.23" departLane="0" departPos="0.00" departSpeed="33.33" route="216650879_to_215803108"/>
    <vehicle id="guajara_creciente_0.46" type="PKW" depart="3601.26" departLane="0" departPos="0.00" departSpeed="33.33" route="216650879_to_:gneJ30_w1"/>
    <vehicle id="guajara_creciente_0.47" type="PKW" depart="3601.29" departLane="0" departPos="0.00" departSpeed="33.33" route="216650879_to_217553754"/>
    <vehicle id="guajara_creciente_0.48" type="PKW" depart="3601.31" departLane="0" departPos="0.00" departSpeed="33.33" route="216650879_to_:Salida-TF5Norte_w0"/>
    <vehicle id="guajara_creciente_0.49" type="LKW" depart="3601.34" departLane="0" departPos="0.00" departSpeed="33.33" route="216650879_to_159229390#1"/>
    <vehicle id="guajara_creciente_0.50" type="PKW" depart="3601.37" departLane="0" departPos="0.00" departSpeed="33.33" route="216650879_to_159229390#1"/>
    <vehicle id="guajara_creciente_0.51" type="PKW" depart="3601.40" departLane="0" departPos="0.00" departSpeed="33.33" route="216650879_to_759746395"/>
    <vehicle id="guajara_creciente_0.52" type="PKW" depart="3601.42" departLane="0" departPos="0.00" departSpeed="33.33" route="216650879_to_159229390#1"/>
    <vehicle id="guajara_creciente_0.53" type="PKW" depart="3601.45" departLane="0" departPos="0.00" departSpeed="33.33" route="216650879_to_:EntradaSalida-Geneto_w0"/>
    <vehicle id="guajara_creciente_0.54" type="PKW" depart="3601.48" departLane="0" departPos="0.00" departSpeed="33.33" route="216650879_to_:EntradaSalida-Geneto_w0"/>
    <vehicle id="guajara_creciente_0.55" type="PKW" depart="3601.50" departLane="0" departPos="0.00" departSpeed="33.33" route="216650879_to_:Entrada-TF5Sur_w0"/>
    <vehicle id="guajara_creciente_0.56" type="PKW" depart="3601.53" departLane="0" departPos="0.00" departSpeed="33.33" route="216650879_to_142470467"/>
    <vehicle id="guajara_creciente_0.57" type="PKW" depart="3601.56" departLane="0" departPos="0.00" departSpeed="33.33" route="216650879_to_759746395"/>
    <vehicle id="guajara_creciente_0.58" type="PKW" depart="3601.59" departLane="0" departPos="0.00" departSpeed="33.33" route="216650879_to_216268747"/>
    <vehicle id="guajara_creciente_0.59" type="PKW" depart="3601.61" departLane="0" departPos="0.00" departSpeed="33.33" route="216650879_to_:EntradaSalida-Geneto_w0"/>
    <vehicle id="guajara_creciente_0.60" type="PKW" depart="3601.64" departLane="0" departPos="0.00" departSpeed="33.33" route="216650879_to_216268747"/>
    <vehicle id="guajara_creciente_0.61" type="PKW" depart="3601.67" departLane="0" departPos="0.00" departSpeed="33.33" route="216650879_to_759746395"/>
    <vehicle id="guajara_creciente_0.62" type="PKW" depart="3601.70" departLane="0" departPos="0.00" departSpeed="33.33" route="216650879_to_216268747"/>
    <vehicle id="guajara_creciente_0.63" type="PKW" depart="3601.72" departLane="0" departPos="0.00" departSpeed="33.33" route="216650879_to_101005127.945"/>
    <vehicle id="guajara_creciente_0.64" type="PKW" depart="3601.75" departLane="0" departPos="0.00" departSpeed="33.33" route="216650879_to_:Entrada-TF5Sur_w0"/>
    <vehicle id="guajara_creciente_0.65" type="PKW" depart="3601.78" departLane="0" departPos="0.00" departSpeed="33.33" route="216650879_to_215803108"/>
    <vehicle id="guajara_creciente_0.66" type="PKW" depart="3601.81" departLane="0" departPos="0.00" departSpeed="33.33" route="216650879_to_:EntradaSalida-Geneto_w0"/>
    <vehicle id="guajara_creciente_0.67" type="PKW" depart="3601.83" departLane="0" departPos="0.00" departSpeed="33.33" route="216650879_to_:Salida-TF5Norte_w0"/>
    <vehicle id="guajara_creciente_0.68" type="PKW" depart="3601.86" departLane="0" departPos="0.00" departSpeed="33.33" route="216650879_to_216268747"/>
    <vehicle id="guajara_creciente_0.69" type="PKW" depart="3601.89" departLane="0" departPos="0.00" departSpeed="33.33" route="216650879_to_:EntradaSalida-Geneto_w0"/>
    <vehicle id="guajara_creciente_0.70" type="PKW" depart="3601.92" departLane="0" departPos="0.00" departSpeed="33.33" route="216650879_to_:Entrada-TF5Sur_w0"/>
    <vehicle id="guajara_creciente_0.71" type="PKW" depart="3601.94" departLane="0" departPos="0.00" departSpeed="33.33" route="216650879_to_:Entrada-TF5Sur_w0"/>
    <vehicle id="guajara_creciente_0.72" type="PKW" depart="3601.97" departLane="0" departPos="0.00" departSpeed="33.33" route="216650879_to_:Salida-TF5Norte_w0"/>
    <vehicle id="guajara_creciente_0.73" type="PKW" depart="3602.00" departLane="0" departPos="0.00" departSpeed="33.33" route="216650879_to_215803108"/>
    <vehicle id="guajara_creciente_0.74" type="LKW" depart="3602.02" departLane="0" departPos="0.00" departSpeed="33.33" route="216650879_to_:gneJ30_w1"/>
    <vehicle id="guajara_creciente_0.75" type="PKW" depart="3602.05" departLane="0" departPos="0.00" departSpeed="33.33" route="216650879_to_216268747"/>
    <vehicle id="guajara_creciente_0.76" type="PKW" depart="3602.08" departLane="0" departPos="0.00" departSpeed="33.33" route="216650879_to_:Salida-TF5Norte_w0"/>
    <vehicle id="guajara_creciente_0.77" type="PKW" depart="3602.11" departLane="0" departPos="0.00" departSpeed="33.33" route="216650879_to_:Salida-TF5Norte_w0"/>
    <vehicle id="guajara_creciente_0.78" type="PKW" depart="3602.13" departLane="0" departPos="0.00" departSpeed="33.33" route="216650879_to_159229390#1"/>
    <vehicle id="guajara_creciente_0.79" type="PKW" depart="3602.16" departLane="0" departPos="0.00" departSpeed="33.33" route="216650879_to_:Entrada-TF5Norte_w1"/>
    <vehicle id="guajara_creciente_0.80" type="PKW" depart="3602.19" departLane="0" departPos="0.00" departSpeed="33.33" route="216650879_to_:Entrada-TF5Sur_w0"/>
    <vehicle id="guajara_creciente_0.81" type="PKW" depart="3602.22" departLane="0" departPos="0.00" departSpeed="33.33" route="216650879_to_:gneJ30_w1"/>
    <vehicle id="guajara_creciente_0.82" type="PKW" depart="3602.24" departLane="0" departPos="0.00" departSpeed="33.33" route="216650879_to_159229390#1"/>
    <vehicle id="guajara_creciente_0.83" type="PKW" depart="3602.27" departLane="0" departPos="0.00" departSpeed="33.33" route="216650879_to_:Entrada-TF5Norte_w1"/>
    <vehicle id="guajara_creciente_0.84" type="PKW" depart="3602.30" departLane="0" departPos="0.00" departSpeed="33.33" route="216650879_to_759746395"/>
    <vehicle id="guajara_creciente_0.85" type="PKW" depart="3602.33" departLane="0" departPos="0.00" departSpeed="33.33" route="216650879_to_:Entrada-TF5Norte_w1"/>
    <vehicle id="guajara_creciente_0.86" type="PKW" depart="3602.35" departLane="0" departPos="0.00" departSpeed="33.33" route="216650879_to_215803108"/>
    <vehicle id="guajara_creciente_0.87" type="PKW" depart="3602.38" departLane="0" departPos="0.00" departSpeed="33.33" route="216650879_to_217553754"/>
    <vehicle id="guajara_creciente_0.88" type="PKW" depart="3602.41" departLane="0" departPos="0.00" departSpeed="33.33" route="216650879_to_759746395"/>
    <vehicle id="guajara_creciente_0.89" type="PKW" depart="3602.44" departLane="0" departPos="0.00" departSpeed="33.33" route="216650879_to_:Entrada-TF5Norte_w1"/>
    <vehicle id="guajara_creciente_0.90" type="PKW" depart="3602.46" departLane="0" departPos="0.00" departSpeed="33.33" route="216650879_to_:Entrada-TF5Norte_w1"/>
    <vehicle id="guajara_creciente_0.91" type="PKW" depart="3602.49" departLane="0" departPos="0.00" departSpeed="33.33" route="216650879_to_:EntradaSalida-Geneto_w0"/>
    <vehicle id="guajara_creciente_0.92" type="PKW" depart="3602.52" departLane="0" departPos="0.00" departSpeed="33.33" route="216650879_to_101005127.945"/>
    <vehicle id="guajara_creciente_0.93" type="PKW" depart="3602.54" departLane="0" departPos="0.00" departSpeed="33.33" route="216650879_to_:Entrada-TF5Sur_w0"/>
    <vehicle id="guajara_creciente_0.94" type="PKW" depart="3602.57" departLane="0" departPos="0.00" departSpeed="33.33" route="216650879_to_:Salida-TF5Norte_w0"/>
    <vehicle id="guajara_creciente_0.95" type="PKW" depart="3602.60" departLane="0" departPos="0.00" departSpeed="33.33" route="216650879_to_28370559#8"/>
    <vehicle id="guajara_creciente_0.96" type="PKW" depart="3602.63" departLane="0" departPos="0.00" departSpeed="33.33" route="216650879_to_759746395"/>
    <vehicle id="guajara_creciente_0.97" type="PKW" depart="3602.65" departLane="0" departPos="0.00" departSpeed="33.33" route="216650879_to_:EntradaSalida-Geneto_w0"/>
    <vehicle id="guajara_creciente_0.98" type="LKW" depart="3602.68" departLane="0" departPos="0.00" departSpeed="33.33" route="216650879_to_142470467"/>
    <vehicle id="guajara_creciente_0.99" type="PKW" depart="3602.71" departLane="0" departPos="0.00" departSpeed="33.33" route="216650879_to_142470467"/>
    <vehicle id="guajara_creciente_0.100" type="PKW" depart="3602.74" departLane="0" departPos="0.00" departSpeed="33.33" route="216650879_to_159229390#1"/>
    <vehicle id="guajara_creciente_0.101" type="PKW" depart="3602.76" departLane="0" departPos="0.00" departSpeed="33.33" route="216650879_to_142470467"/>
    <vehicle id="guajara_creciente_0.102" type="PKW" depart="3602.79" departLane="0" departPos="0.00" departSpeed="33.33" route="216650879_to_28370559#8"/>
    <vehicle id="guajara_creciente_0.103" type="PKW" depart="3602.82" departLane="0" departPos="0.00" departSpeed="33.33" route="216650879_to_215803108"/>
    <vehicle id="guajara_creciente_0.104" type="PKW" depart="3602.85" departLane="0" departPos="0.00" departSpeed="33.33" route="216650879_to_:EntradaSalida-Geneto_w0"/>
    <vehicle id="guajara_creciente_0.105" type="PKW" depart="3602.87" departLane="0" departPos="0.00" departSpeed="33.33" route="216650879_to_:Entrada-TF5Sur_w0"/>
    <vehicle id="guajara_creciente_0.106" type="PKW" depart="3602.90" departLane="0" departPos="0.00" departSpeed="33.33" route="216650879_to_:Entrada-TF5Norte_w1"/>
    <vehicle id="guajara_creciente_0.107" type="PKW" depart="3602.93" departLane="0" departPos="0.00" departSpeed="33.33" route="216650879_to_:Entrada-TF5Sur_w0"/>
    <vehicle id="guajara_creciente_0.108" type="PKW" depart="3602.95" departLane="0" departPos="0.00" departSpeed="33.33" route="216650879_to_159229390#1"/>
    <vehicle id="guajara_creciente_0.109" type="PKW" depart="3602.98" departLane="0" departPos="0.00" departSpeed="33.33" route="216650879_to_:Salida-TF5Norte_w0"/>
    <vehicle id="guajara_creciente_0.110" type="PKW" depart="3603.01" departLane="0" departPos="0.00" departSpeed="33.33" route="216650879_to_142470467"/>
    <vehicle id="guajara_creciente_0.111" type="PKW" depart="3603.04" departLane="0" departPos="0.00" departSpeed="33.33" route="216650879_to_159229390#1"/>
    <vehicle id="guajara_creciente_0.112" type="PKW" depart="3603.06" departLane="0" departPos="0.00" departSpeed="33.33" route="216650879_to_-62073582"/>
    <vehicle id="guajara_creciente_0.113" type="PKW" depart="3603.09" departLane="0" departPos="0.00" departSpeed="33.33" route="216650879_to_:Entrada-TF5Sur_w0"/>
    <vehicle id="guajara_creciente_0.114" type="PKW" depart="3603.12" departLane="0" departPos="0.00" departSpeed="33.33" route="216650879_to_159229390#1"/>
    <vehicle id="guajara_creciente_0.115" type="PKW" depart="3603.15" departLane="0" departPos="0.00" departSpeed="33.33" route="216650879_to_216268747"/>
    <vehicle id="guajara_creciente_0.116" type="PKW" depart="3603.17" departLane="0" departPos="0.00" departSpeed="33.33" route="216650879_to_159229390#1"/>
    <vehicle id="guajara_creciente_0.117" type="PKW" depart="3603.20" departLane="0" departPos="0.00" departSpeed="33.33" route="216650879_to_216268747"/>
    <vehicle id="guajara_creciente_0.118" type="PKW" depart="3603.23" departLane="0" departPos="0.00" departSpeed="33.33" route="216650879_to_28370559#8"/>
    <vehicle id="guajara_creciente_0.119" type="PKW" depart="3603.26" departLane="0" departPos="0.00" departSpeed="33.33" route="216650879_to_:Entrada-TF5Norte_w1"/>
    <vehicle id="guajara_creciente_0.120" type="PKW" depart="3603.28" departLane="0" departPos="0.00" departSpeed="33.33" route="216650879_to_142470467"/>
    <vehicle id="guajara_creciente_0.121" type="PKW" depart="3603.31" departLane="0" departPos="0.00" departSpeed="33.33" route="216650879_to_:Salida-TF5Norte_w0"/>
    <vehicle id="guajara_creciente_0.122" type="LKW" depart="3603.34" departLane="0" departPos="0.00" departSpeed="33.33" route="216650879_to_:Entrada-TF5Norte_w1"/>
    <vehicle id="guajara_creciente_0.123" type="PKW" depart="3603.37" departLane="0" departPos="0.00" departSpeed="33.33" route="216650879_to_159229390#1"/>
    <vehicle id="guajara_creciente_0.124" type="PKW" depart="3603.39" departLane="0" departPos="0.00" departSpeed="33.33" route="216650879_to_:EntradaSalida-Geneto_w0"/>
    <vehicle id="guajara_creciente_0.125" type="PKW" depart="3603.42" departLane="0" departPos="0.00" departSpeed="33.33" route="216650879_to_217553754"/>
    <vehicle id="guajara_creciente_0.126" type="PKW" depart="3603.45" departLane="0" departPos="0.00" departSpeed="33.33" route="216650879_to_216268747"/>
    <vehicle id="guajara_creciente_0.127" type="PKW" depart="3603.47" departLane="0" departPos="0.00" departSpeed="33.33" route="216650879_to_28370559#8"/>
    <vehicle id="guajara_creciente_0.128" type="PKW" depart="3603.50" departLane="0" departPos="0.00" departSpeed="33.33" route="216650879_to_:Entrada-TF5Sur_w0"/>
    <vehicle id="guajara_creciente_0.129" type="PKW" depart="3603.53" departLane="0" departPos="0.00" departSpeed="33.33" route="216650879_to_159229390#1"/>
    <vehicle id="guajara_creciente_0.130" type="PKW" depart="3603.56" departLane="0" departPos="0.00" departSpeed="33.33" route="216650879_to_142470467"/>
    <vehicle id="guajara_creciente_0.131" type="PKW" depart="3603.58" departLane="0" departPos="0.00" departSpeed="33.33" route="216650879_to_759746395"/>
    <vehicle id="guajara_creciente_0.132" type="PKW" depart="3603.61" departLane="0" departPos="0.00" departSpeed="33.33" route="216650879_to_:Entrada-TF5Sur_w0"/>
    <vehicle id="guajara_creciente_0.133" type="PKW" depart="3603.64" departLane="0" departPos="0.00" departSpeed="33.33" route="216650879_to_:Entrada-TF5Norte_w1"/>
    <vehicle id="guajara_creciente_0.134" type="PKW" depart="3603.67" departLane="0" departPos="0.00" departSpeed="33.33" route="216650879_to_159229390#1"/>
    <vehicle id="guajara_creciente_0.135" type="PKW" depart="3603.69" departLane="0" departPos="0.00" departSpeed="33.33" route="216650879_to_759746395"/>
    <vehicle id="guajara_creciente_0.136" type="PKW" depart="3603.72" departLane="0" departPos="0.00" departSpeed="33.33" route="216650879_to_215803108"/>
    <vehicle id="guajara_creciente_0.137" type="PKW" depart="3603.75" departLane="0" departPos="0.00" departSpeed="33.33" route="216650879_to_:Salida-TF5Norte_w0"/>
    <vehicle id="guajara_creciente_0.138" type="PKW" depart="3603.78" departLane="0" departPos="0.00" departSpeed="33.33" route="216650879_to_28370559#8"/>
    <vehicle id="guajara_creciente_0.139" type="PKW" depart="3603.80" departLane="0" departPos="0.00" departSpeed="33.33" route="216650879_to_759746395"/>
    <vehicle id="guajara_creciente_0.140" type="PKW" depart="3603.83" departLane="0" departPos="0.00" departSpeed="33.33" route="216650879_to_217553754"/>
    <vehicle id="guajara_creciente_0.141" type="PKW" depart="3603.86" departLane="0" departPos="0.00" departSpeed="33.33" route="216650879_to_:EntradaSalida-Geneto_w0"/>
    <vehicle id="guajara_creciente_0.142" type="PKW" depart="3603.89" departLane="0" departPos="0.00" departSpeed="33.33" route="216650879_to_215803108"/>
    <vehicle id="guajara_creciente_0.143" type="PKW" depart="3603.91" departLane="0" departPos="0.00" departSpeed="33.33" route="216650879_to_101005127.945"/>
    <vehicle id="guajara_creciente_0.144" type="PKW" depart="3603.94" departLane="0" departPos="0.00" departSpeed="33.33" route="216650879_to_:EntradaSalida-Geneto_w0"/>
    <vehicle id="guajara_creciente_0.145" type="PKW" depart="3603.97" departLane="0" departPos="0.00" departSpeed="33.33" route="216650879_to_28370559#8"/>
    <vehicle id="guajara_creciente_0.146" type="PKW" depart="3603.99" departLane="0" departPos="0.00" departSpeed="33.33" route="216650879_to_142470467"/>
    <vehicle id="guajara_creciente_0.147" type="LKW" depart="3604.02" departLane="0" departPos="0.00" departSpeed="33.33" route="216650879_to_28370559#8"/>
    <vehicle id="guajara_creciente_0.148" type="PKW" depart="3604.05" departLane="0" departPos="0.00" departSpeed="33.33" route="216650879_to_216268747"/>
    <vehicle id="guajara_creciente_0.149" type="PKW" depart="3604.08" departLane="0" departPos="0.00" departSpeed="33.33" route="216650879_to_:Entrada-TF5Sur_w0"/>
    <vehicle id="guajara_creciente_0.150" type="PKW" depart="3604.10" departLane="0" departPos="0.00" departSpeed="33.33" route="216650879_to_-62073582"/>
    <vehicle id="guajara_creciente_0.151" type="PKW" depart="3604.13" departLane="0" departPos="0.00" departSpeed="33.33" route="216650879_to_142470467"/>
    <vehicle id="guajara_creciente_0.152" type="PKW" depart="3604.16" departLane="0" departPos="0.00" departSpeed="33.33" route="216650879_to_:Entrada-TF5Sur_w0"/>
    <vehicle id="guajara_creciente_0.153" type="PKW" depart="3604.19" departLane="0" departPos="0.00" departSpeed="33.33" route="216650879_to_101005127.945"/>
    <vehicle id="guajara_creciente_0.154" type="PKW" depart="3604.21" departLane="0" departPos="0.00" departSpeed="33.33" route="216650879_to_159229390#1"/>
    <vehicle id="guajara_creciente_0.155" type="PKW" depart="3604.24" departLane="0" departPos="0.00" departSpeed="33.33" route="216650879_to_28370559#8"/>
    <vehicle id="guajara_creciente_0.156" type="PKW" depart="3604.27" departLane="0" departPos="0.00" departSpeed="33.33" route="216650879_to_101005127.945"/>
    <vehicle id="guajara_creciente_0.157" type="PKW" depart="3604.30" departLane="0" departPos="0.00" departSpeed="33.33" route="216650879_to_142470467"/>
    <vehicle id="guajara_creciente_0.158" type="PKW" depart="3604.32" departLane="0" departPos="0.00" departSpeed="33.33" route="216650879_to_28370559#8"/>
    <vehicle id="guajara_creciente_0.159" type="PKW" depart="3604.35" departLane="0" departPos="0.00" departSpeed="33.33" route="216650879_to_:Entrada-TF5Norte_w1"/>
    <vehicle id="guajara_creciente_0.160" type="PKW" depart="3604.38" departLane="0" departPos="0.00" departSpeed="33.33" route="216650879_to_:Salida-TF5Norte_w0"/>
    <vehicle id="guajara_creciente_0.161" type="PKW" depart="3604.40" departLane="0" departPos="0.00" departSpeed="33.33" route="216650879_to_28370559#8"/>
    <vehicle id="guajara_creciente_0.162" type="PKW" depart="3604.43" departLane="0" departPos="0.00" departSpeed="33.33" route="216650879_to_217553754"/>
    <vehicle id="guajara_creciente_0.163" type="PKW" depart="3604.46" departLane="0" departPos="0.00" departSpeed="33.33" route="216650879_to_:Entrada-TF5Norte_w1"/>
    <vehicle id="guajara_creciente_0.164" type="PKW" depart="3604.49" departLane="0" departPos="0.00" departSpeed="33.33" route="216650879_to_:EntradaSalida-Geneto_w0"/>
    <vehicle id="guajara_creciente_0.165" type="PKW" depart="3604.51" departLane="0" departPos="0.00" departSpeed="33.33" route="216650879_to_142470467"/>
    <vehicle id="guajara_creciente_0.166" type="PKW" depart="3604.54" departLane="0" departPos="0.00" departSpeed="33.33" route="216650879_to_:EntradaSalida-Geneto_w0"/>
    <vehicle id="guajara_creciente_0.167" type="PKW" depart="3604.57" departLane="0" departPos="0.00" departSpeed="33.33" route="216650879_to_-62073582"/>
    <vehicle id="guajara_creciente_0.168" type="PKW" depart="3604.60" departLane="0" departPos="0.00" departSpeed="33.33" route="216650879_to_142470467"/>
    <vehicle id="guajara_creciente_0.169" type="PKW" depart="3604.62" departLane="0" departPos="0.00" departSpeed="33.33" route="216650879_to_217553754"/>
    <vehicle id="guajara_creciente_0.170" type="PKW" depart="3604.65" departLane="0" departPos="0.00" departSpeed="33.33" route="216650879_to_:Entrada-TF5Sur_w0"/>
    <vehicle id="guajara_creciente_0.171" type="LKW" depart="3604.68" departLane="0" departPos="0.00" departSpeed="33.33" route="216650879_to_:gneJ30_w1"/>
    <vehicle id="guajara_creciente_0.172" type="PKW" depart="3604.71" departLane="0" departPos="0.00" departSpeed="33.33" route="216650879_to_216268747"/>
    <vehicle id="guajara_creciente_0.173" type="PKW" depart="3604.73" departLane="0" departPos="0.00" departSpeed="33.33" route="216650879_to_142470467"/>
    <vehicle id="guajara_creciente_0.174" type="PKW" depart="3604.76" departLane="0" departPos="0.00" departSpeed="33.33" route="216650879_to_:Entrada-TF5Sur_w0"/>