<?xml version="1.0" encoding="UTF-8"?>

<!-- generated on 04/29/20 16:49:18 by Eclipse SUMO dfrouter Version 1.5.0
<configuration xmlns:xsi="http://www.w3.org/2001/XMLSchema-instance" xsi:noNamespaceSchemaLocation="http://sumo.dlr.de/xsd/dfrouterConfiguration.xsd">

    <input>
        <net-file value="anchieta.net.xml"/>
        <detector-files value="detectors_output.add.xml"/>
        <measure-files value="flow_TF-5_2020-02-27_8h_normal.csv"/>
    </input>

    <output>
        <routes-output value="routes_output.add.xml"/>
        <emitters-output value="emiter_output.add.xml"/>
    </output>

    <processing>
        <revalidate-routes value="true"/>
        <keep-unfinished-routes value="true"/>
        <disallowed-edges value="775381928,:Entrada-TF5Norte_w1,:Entrada-TF5Sur_w0,:gneJ30_w1,:Salida-TF5Norte_w0,142470467"/>
    </processing>

    <report>
        <verbose value="true"/>
    </report>

</configuration>
-->

<routes xmlns:xsi="http://www.w3.org/2001/XMLSchema-instance" xsi:noNamespaceSchemaLocation="http://sumo.dlr.de/xsd/routes_file.xsd">

    <route id="216650879_to_159229344#0.2" edges="216650879 101005127.269 101005127.341 101005127.417 775381929 28306817 215803174#0 215803157 159229344#0 159229344#0.2"/>
    <route id="216650879_to_215803108" edges="216650879 101005127.269 101005127.341 101005127.417 101005127.504 101005127.945 217912067 215803108"/>
    <route id="216650879_to_28490061#2" edges="216650879 101005127.269 101005127.341 101005127.417 775381929 28306817 215803174#0 215803157 216243708#1 28490061#1 28490061#2"/>
    <route id="216650879_to_-217365458#0" edges="216650879 101005127.269 101005127.341 101005127.417 775381929 28306817 215803174#0 215803157 216243708#1 220346965 154607611 154607613#0 154607613#1 216268744 142470461 -217365458#2 -217365458#1 -217365458#0"/>
    <route id="216650879_to_759746395" edges="216650879 101005127.269 101005127.341 101005127.417 775381929 28306817 215803174#0 215803157 216243708#1 220346965 154607611 154607613#0 154607613#1 216268744 142470445 218891289 550301038 218745680 91731873#1 449288818#0 449288818#1 100829406 217691379-AddedOnRampEdge 217691379 216657562 216657562-AddedOffRampEdge 449289872 759746395"/>
    <route id="216650879_to_142470433#4" edges="216650879 101005127.269 101005127.341 101005127.417 775381929 28306817 215803174#0 215803157 216243708#1 220346965 154607611 154607613#0 154607613#1 216268744 142470445 218891289 550301038 142470433#1 142470433#2 142470433#3 142470433#4"/>
    <route id="216650879_to_-109573928#1.8" edges="216650879 101005127.269 101005127.341 101005127.417 775381929 28306817 215803174#0 215803157 216243708#1 220346965 154607611 154607613#0 154607613#1 216268744 142470445 218891289 -109573928#1.8"/>
    <route id="216650879_to_217553754" edges="216650879 101005127.269 101005127.341 101005127.417 775381929 28306817 215803174#0 215803157 216243708#1 220346965 154607611 154607613#0 154607613#1 216268744 142470445 218891289 550301038 218745680 91731873#1 449288818#0 449288818#1 100829406 217691379-AddedOnRampEdge 217691379 216657562 216657562-AddedOffRampEdge 217553754"/>

    <route id="216243701_to_159229344#0.2" edges="216243701 216243701-AddedOffRampEdge 100594724 359358942#0 359358942#1 216268744 142470445 218891289 550301038 218745680 217691393#0 217691393#1 215803157 159229344#0 159229344#0.2"/>
    <route id="216243701_to_28490061#2" edges="216243701 216243701-AddedOffRampEdge 100594724 359358942#0 359358942#1 216268744 142470445 218891289 550301038 218745680 217691393#0 217691393#1 215803157 216243708#1 28490061#1 28490061#2"/>
    <route id="216243701_to_-217365458#0" edges="216243701 216243701-AddedOffRampEdge 100594724 27528360 362088243#1 -217365458#2 -217365458#1 -217365458#0"/>
    <route id="216243701_to_759746395" edges="216243701 216243701-AddedOffRampEdge 216243700 216243700.351 217691379-AddedOnRampEdge 217691379 216657562 216657562-AddedOffRampEdge 449289872 759746395"/>
    <route id="216243701_to_215803108" edges="216243701 216243701-AddedOffRampEdge 100594724 359358942#0 359358942#1 216268744 142470445 218891289 550301038 218745680 217691393#0 217691393#1 215803157 216243708#1 220346965 154607611 28306819#0 28306819#1 28306819#2 215803177 217912067 215803108"/>
    <route id="216243701_to_142470433#4" edges="216243701 216243701-AddedOffRampEdge 100594724 359358942#0 359358942#1 216268744 142470445 218891289 550301038 142470433#1 142470433#2 142470433#3 142470433#4"/>
    <route id="216243701_to_-109573928#1.8" edges="216243701 216243701-AddedOffRampEdge 100594724 359358942#0 359358942#1 216268744 142470445 218891289 -109573928#1.8"/>
    <route id="216243701_to_217553754" edges="216243701 216243701-AddedOffRampEdge 216243700 216243700.351 217691379-AddedOnRampEdge 217691379 216657562 216657562-AddedOffRampEdge 217553754"/>

    <route id="109573928#1_to_159229344#0.2" edges="109573928#1 550301038 218745680 217691393#0 217691393#1 215803157 159229344#0 159229344#0.2"/>
    <route id="109573928#1_to_28490061#2" edges="109573928#1 550301038 218745680 217691393#0 217691393#1 215803157 216243708#1 28490061#1 28490061#2"/>
    <route id="109573928#1_to_215803108" edges="109573928#1 550301038 218745680 217691393#0 217691393#1 215803157 216243708#1 220346965 154607611 28306819#0 28306819#1 28306819#2 215803177 217912067 215803108"/>
    <route id="109573928#1_to_759746395" edges="109573928#1 550301038 218745680 91731873#1 449288818#0 449288818#1 100829406 217691379-AddedOnRampEdge 217691379 216657562 216657562-AddedOffRampEdge 449289872 759746395"/>
    <route id="109573928#1_to_142470433#4" edges="109573928#1 550301038 142470433#1 142470433#2 142470433#3 142470433#4"/>
    <route id="109573928#1_to_-217365458#0" edges="109573928#1 550301038 218745680 217691393#0 217691393#1 215803157 216243708#1 220346965 154607611 154607613#0 154607613#1 216268744 142470461 -217365458#2 -217365458#1 -217365458#0"/>
    <route id="109573928#1_to_-109573928#1.8" edges="109573928#1 550301038 218745680 217691393#0 217691393#1 215803157 216243708#1 220346965 154607611 154607613#0 154607613#1 216268744 142470445 218891289 -109573928#1.8"/>
    <route id="109573928#1_to_217553754" edges="109573928#1 550301038 218745680 91731873#1 449288818#0 449288818#1 100829406 217691379-AddedOnRampEdge 217691379 216657562 216657562-AddedOffRampEdge 217553754"/>

    <route id="-142470433#4_to_:EntradaSalida-Geneto_w0" edges="-142470433#4 -142470433#3 -142470433#2 -142470433#1 :EntradaSalida-Geneto_w0"/>
    <route id="-142470433#4_to_159229344#0.2" edges="-142470433#4 -142470433#3 -142470433#2 -142470433#1 218745680 217691393#0 217691393#1 215803157 159229344#0 159229344#0.2"/>
    <route id="-142470433#4_to_28490061#2" edges="-142470433#4 -142470433#3 -142470433#2 -142470433#1 218745680 217691393#0 217691393#1 215803157 216243708#1 28490061#1 28490061#2"/>
    <route id="-142470433#4_to_759746395" edges="-142470433#4 -142470433#3 -142470433#2 142470460#0 142470460#1 449288818#0 449288818#1 100829406 217691379-AddedOnRampEdge 217691379 216657562 216657562-AddedOffRampEdge 449289872 759746395"/>
    <route id="-142470433#4_to_215803108" edges="-142470433#4 -142470433#3 -142470433#2 -142470433#1 218745680 217691393#0 217691393#1 215803157 216243708#1 220346965 154607611 28306819#0 28306819#1 28306819#2 215803177 217912067 215803108"/>
    <route id="-142470433#4_to_-217365458#0" edges="-142470433#4 -142470433#3 -142470433#2 -142470433#1 218745680 217691393#0 217691393#1 215803157 216243708#1 220346965 154607611 154607613#0 154607613#1 216268744 142470461 -217365458#2 -217365458#1 -217365458#0"/>
    <route id="-142470433#4_to_142470433#4" edges="-142470433#4 -142470433#3 -142470433#2 -142470433#1 218745680 217691393#0 217691393#1 215803157 216243708#1 220346965 154607611 154607613#0 154607613#1 216268744 142470445 218891289 550301038 142470433#1 142470433#2 142470433#3 142470433#4"/>
    <route id="-142470433#4_to_-109573928#1.8" edges="-142470433#4 -142470433#3 -142470433#2 -142470433#1 218745680 217691393#0 217691393#1 215803157 216243708#1 220346965 154607611 154607613#0 154607613#1 216268744 142470445 218891289 -109573928#1.8"/>
    <route id="-142470433#4_to_217553754" edges="-142470433#4 -142470433#3 -142470433#2 142470460#0 142470460#1 449288818#0 449288818#1 100829406 217691379-AddedOnRampEdge 217691379 216657562 216657562-AddedOffRampEdge 217553754"/>

    <route id="358043015#3_to_159229344#0.2" edges="358043015#3 217365458#1 217365458#2 142470465 218891289 550301038 218745680 217691393#0 217691393#1 215803157 159229344#0 159229344#0.2"/>
    <route id="358043015#3_to_28490061#2" edges="358043015#3 217365458#1 217365458#2 142470465 218891289 550301038 218745680 217691393#0 217691393#1 215803157 216243708#1 28490061#1 28490061#2"/>
    <route id="358043015#3_to_215803108" edges="358043015#3 217365458#1 217365458#2 142470465 218891289 550301038 218745680 217691393#0 217691393#1 215803157 216243708#1 220346965 154607611 28306819#0 28306819#1 28306819#2 215803177 217912067 215803108"/>
    <route id="358043015#3_to_759746395" edges="358043015#3 217365458#1 217365458#2 142470465 218891289 550301038 218745680 91731873#1 449288818#0 449288818#1 100829406 217691379-AddedOnRampEdge 217691379 216657562 216657562-AddedOffRampEdge 449289872 759746395"/>
    <route id="358043015#3_to_142470433#4" edges="358043015#3 217365458#1 217365458#2 142470465 218891289 550301038 142470433#1 142470433#2 142470433#3 142470433#4"/>
    <route id="358043015#3_to_-109573928#1.8" edges="358043015#3 217365458#1 217365458#2 142470465 218891289 -109573928#1.8"/>
    <route id="358043015#3_to_-217365458#0" edges="358043015#3 217365458#1 217365458#2 142470465 218891289 550301038 218745680 217691393#0 217691393#1 215803157 216243708#1 220346965 154607611 154607613#0 154607613#1 216268744 142470461 -217365458#2 -217365458#1 -217365458#0"/>
    <route id="358043015#3_to_217553754" edges="358043015#3 217365458#1 217365458#2 142470465 218891289 550301038 218745680 91731873#1 449288818#0 449288818#1 100829406 217691379-AddedOnRampEdge 217691379 216657562 216657562-AddedOffRampEdge 217553754"/>

    <route id="217365460#0_to_159229344#0.2" edges="217365460#0 217365460#1 217365460#2 154607611 154607613#0 154607613#1 216268744 142470445 218891289 550301038 218745680 217691393#0 217691393#1 215803157 159229344#0 159229344#0.2"/>
    <route id="217365460#0_to_28490061#2" edges="217365460#0 217365460#1 217365460#2 154607611 154607613#0 154607613#1 216268744 142470445 218891289 550301038 218745680 217691393#0 217691393#1 215803157 216243708#1 28490061#1 28490061#2"/>
    <route id="217365460#0_to_215803108" edges="217365460#0 217365460#1 217365460#2 154607611 28306819#0 28306819#1 28306819#2 215803177 217912067 215803108"/>
    <route id="217365460#0_to_-217365458#0" edges="217365460#0 217365460#1 217365460#2 154607611 154607613#0 154607613#1 216268744 142470461 -217365458#2 -217365458#1 -217365458#0"/>
    <route id="217365460#0_to_759746395" edges="217365460#0 217365460#1 217365460#2 154607611 154607613#0 154607613#1 216268744 142470445 218891289 550301038 218745680 91731873#1 449288818#0 449288818#1 100829406 217691379-AddedOnRampEdge 217691379 216657562 216657562-AddedOffRampEdge 449289872 759746395"/>
    <route id="217365460#0_to_142470433#4" edges="217365460#0 217365460#1 217365460#2 154607611 154607613#0 154607613#1 216268744 142470445 218891289 550301038 142470433#1 142470433#2 142470433#3 142470433#4"/>
    <route id="217365460#0_to_-109573928#1.8" edges="217365460#0 217365460#1 217365460#2 154607611 154607613#0 154607613#1 216268744 142470445 218891289 -109573928#1.8"/>
    <route id="217365460#0_to_217553754" edges="217365460#0 217365460#1 217365460#2 154607611 154607613#0 154607613#1 216268744 142470445 218891289 550301038 218745680 91731873#1 449288818#0 449288818#1 100829406 217691379-AddedOnRampEdge 217691379 216657562 216657562-AddedOffRampEdge 217553754"/>


</routes>
